version 3
run General-0-20240506-15:43:00-1727
attr configname General
attr datetime 20240506-15:43:00
attr datetimef 20240506-154300
attr experiment General
attr inifile omnetpp.ini
attr iterationvars ""
attr iterationvarsd ""
attr iterationvarsf ""
attr measurement ""
attr network Network
attr processid 1727
attr repetition 0
attr replication #0
attr resultdir results
attr runnumber 0
attr seedset 0
config network Network
config sim-time-limit 200s
config Network.gen.generationInterval exponential(0.001)
config Network.queue.serviceTime exponential(0.001)
config Network.nodeTx.gen.generationInterval exponential(0.1)
config Network.nodeTx.gen.packetByteSize 12500
config Network.queue.bufferSize 200
config Network.nodeRx.queue.bufferSize 200
config Network.nodeTx.queue.bufferSize 2000000

vector 0 Network.nodeTx.queue "" ETV
vector 1 Network.queue "" ETV
vector 2 Network.nodeRx.queue "" ETV
vector 3 Network.nodeRx.sink Delay ETV
vector 4 Network.queue "" ETV
0	2	0.079587450457	1
0	5	0.169443489305	1
0	12	0.29503656511	1
0	22	0.480996986317	1
0	25	0.573319299464	1
0	36	0.768473833052	1
0	42	0.84719394705	1
0	53	1.03509035247	1
0	58	1.090195201137	1
0	65	1.187895843776	1
0	71	1.291711773842	1
0	75	1.340224590214	1
0	80	1.397776509902	2
0	82	1.433092423816	3
0	95	1.65544486602	1
0	97	1.661283332929	2
0	115	1.992774560922	1
0	118	2.024610175006	1
0	120	2.072970385501	2
0	126	2.137915020326	2
0	137	2.294804632088	1
0	144	2.46202575212	1
0	150	2.537293163451	1
0	157	2.602681420173	1
0	161	2.686624705463	2
0	165	2.736511906365	2
0	181	2.99633731495	1
0	188	3.177174241377	1
0	194	3.184542776924	1
0	196	3.225700576548	2
0	198	3.23481667916	3
0	204	3.339277929991	3
0	206	3.341320488831	4
0	213	3.387245302557	4
0	219	3.565994068901	4
0	239	3.881011061769	1
0	246	4.031589487633	1
0	248	4.046712572999	2
0	259	4.250743998793	1
0	270	4.454833220384	1
0	285	4.839355407298	1
0	290	4.903526324566	1
0	299	5.064050280272	1
0	309	5.225450487761	1
0	314	5.287343433724	1
0	318	5.360839875843	1
0	327	5.512493473242	1
0	336	5.626087367413	1
0	339	5.638674808357	1
0	345	5.766197578579	1
0	352	5.868340766014	1
0	358	5.955572885518	1
0	360	5.971045853568	2
0	367	6.048129319415	2
0	382	6.337571367214	1
0	390	6.479707835223	1
0	395	6.553490564399	1
0	397	6.564685180462	2
0	404	6.618241752485	2
0	410	6.682411222688	2
0	412	6.713139257903	3
0	414	6.733759586106	4
0	425	6.882585068681	3
0	432	7.016114087143	3
0	434	7.077022329461	4
0	440	7.101427178535	4
0	447	7.185460649096	4
0	449	7.199988451825	5
0	451	7.201885308745	6
0	453	7.241062389813	7
0	459	7.33720048372	7
0	461	7.353414132665	8
0	468	7.448113800382	8
0	470	7.473257993589	9
0	476	7.569212791326	9
0	483	7.618068496257	9
0	498	7.905859998385	7
0	509	8.138751335806	6
0	516	8.253265231276	6
0	522	8.313039838958	6
0	524	8.357591688463	7
0	531	8.452541146813	7
0	537	8.509994387487	7
0	548	8.742629493656	6
0	555	8.862240273602	6
0	557	8.87269639618	7
0	559	8.878907925227	8
0	579	9.228929293672	5
0	585	9.338820540427	5
0	592	9.444703953576	5
0	598	9.555763698145	5
0	600	9.574506304747	6
0	607	9.598126975355	6
0	609	9.642467378217	7
0	611	9.65627024706	8
0	622	9.795174516039	7
0	624	9.833070712467	8
0	630	9.926676868444	8
0	632	9.971887074466	9
0	639	10.011198330196	9
0	645	10.095641109549	9
0	647	10.09955942519	10
0	649	10.157291856271	11
0	656	10.257878956788	11
0	680	10.703328641406	7
0	696	11.022623305611	5
0	698	11.033386816427	6
0	704	11.139169457762	6
0	706	11.16259960964	7
0	713	11.263401534182	7
0	719	11.280992888725	7
0	744	11.817002923749	3
0	750	11.922877195258	3
0	757	12.010068780621	3
0	759	12.039276833948	4
0	765	12.092783301656	4
0	767	12.155577459755	5
0	774	12.219955559915	5
0	776	12.247983260763	6
0	782	12.34566966817	6
0	784	12.362982413785	7
0	791	12.404232536777	7
0	793	12.415928077756	8
0	799	12.528244907909	8
0	806	12.635052127624	8
0	808	12.673207711961	9
0	814	12.688078938886	9
0	821	12.838742472213	9
0	823	12.860630531864	10
0	838	13.159349521049	8
0	845	13.205350916823	8
0	851	13.313977854911	8
0	862	13.486011020683	7
0	864	13.487377478526	8
0	866	13.497591966678	9
0	873	13.595102160094	9
0	879	13.777084052022	9
0	890	13.889065488597	8
0	892	13.899168966128	9
0	908	14.256527803362	7
0	928	14.63143094932	4
0	939	14.841963079399	3
0	945	14.905196739039	3
0	947	14.976455098372	4
0	967	15.352647826822	1
0	969	15.358380519464	2
0	976	15.451228369154	2
0	982	15.511223057818	2
0	989	15.645647585033	2
0	991	15.647666597848	3
0	993	15.651664227754	4
0	999	15.709952066641	4
0	1001	15.743193090737	5
0	1021	16.132350103022	2
0	1023	16.145155779553	3
0	1030	16.189697725745	3
0	1032	16.224815334683	4
0	1038	16.290379963119	4
0	1040	16.303018826762	5
0	1047	16.419706179417	5
0	1049	16.457976274303	6
0	1060	16.670399994003	5
0	1066	16.723888431579	5
0	1077	16.974279609888	4
0	1084	16.980909350036	4
0	1086	17.005348894844	5
0	1092	17.123267847551	5
0	1099	17.206552199158	5
0	1105	17.290161952355	5
0	1116	17.490486004606	4
0	1118	17.521327488616	5
0	1125	17.592452282338	5
0	1127	17.666528177383	6
0	1142	17.915086413081	4
0	1144	17.924951443923	5
0	1155	18.178981894719	4
0	1162	18.264771458826	4
0	1164	18.27344850706	5
0	1179	18.538374099928	3
0	1181	18.570908141481	4
0	1188	18.609264162891	4
0	1190	18.610204237957	5
0	1196	18.720288828966	5
0	1207	18.905021594066	4
0	1209	18.919154665422	5
0	1216	19.02333273084	5
0	1222	19.149326111851	5
0	1233	19.333454359	4
0	1235	19.367619775703	5
0	1242	19.398371548079	5
0	1244	19.418606591936	6
0	1246	19.469326604262	7
0	1252	19.557639508458	7
0	1259	19.638119248438	7
0	1261	19.640150494318	8
0	1263	19.658175719516	9
0	1274	19.834749826757	8
0	1280	19.880922916361	8
0	1282	19.88139357041	9
0	1284	19.897227721033	10
0	1291	20.01049113523	10
0	1297	20.094799438445	10
0	1299	20.12627160453	11
0	1306	20.247922469874	11
0	1317	20.380798257249	10
0	1319	20.414832931073	11
0	1334	20.742347248844	9
0	1341	20.799137664192	9
0	1343	20.827739761443	10
0	1349	20.968842202372	10
0	1356	21.054681499155	10
0	1362	21.105115879814	10
0	1369	21.194774966893	10
0	1380	21.421148324479	9
0	1386	21.506070405635	9
0	1393	21.607936278637	9
0	1395	21.633178277926	10
0	1406	21.855328967773	9
0	1421	22.160557133461	7
0	1428	22.274517929814	7
0	1434	22.333780332559	7
0	1441	22.393418271992	7
0	1452	22.580764259978	6
0	1467	22.965064918302	4
0	1478	23.085288775027	3
0	1480	23.097641439763	4
0	1482	23.13294345309	5
0	1489	23.278625308946	5
0	1500	23.446717529401	4
0	1506	23.499789779063	4
0	1508	23.550291653838	5
0	1515	23.662819855522	5
0	1526	23.875769795129	4
0	1532	23.904510842736	4
0	1539	23.991564425369	4
0	1541	24.02913830961	5
0	1552	24.242621354608	4
0	1567	24.579058399913	2
0	1578	24.696996693277	1
0	1585	24.785782834321	1
0	1591	24.914973761201	1
0	1598	25.022757249615	1
0	1604	25.092337195705	1
0	1606	25.168523972835	2
0	1624	25.481070808601	1
0	1627	25.507276532769	1
0	1634	25.610556233834	1
0	1636	25.66078731366	2
0	1642	25.715926912673	2
0	1649	25.812372269222	2
0	1655	25.905612557263	2
0	1657	25.970023028095	3
0	1659	25.97196100623	4
0	1666	26.035473777793	4
0	1668	26.07136649938	5
0	1679	26.197270851106	4
0	1685	26.305202870972	4
0	1687	26.33916934423	5
0	1689	26.3734293067	6
0	1696	26.421792875359	6
0	1702	26.518030380936	6
0	1709	26.65632830159	6
0	1715	26.712324408597	6
0	1726	26.923069169092	5
0	1728	26.937626566937	6
0	1730	26.948481276786	7
0	1737	26.983903690011	7
0	1739	26.993595965469	8
0	1741	27.077984812728	9
0	1747	27.121687614105	9
0	1754	27.211060521936	9
0	1760	27.291315720512	9
0	1762	27.376723694076	10
0	1767	27.380144035912	11
0	1775	27.48604497445	10
0	1791	27.833298522378	8
0	1797	27.938883483244	8
0	1799	27.977596492459	9
0	1806	28.034057542571	9
0	1808	28.059065692069	10
0	1823	28.285929091338	8
0	1825	28.301158453863	9
0	1827	28.346975742259	10
0	1829	28.357207803744	11
0	1836	28.414453958887	11
0	1856	28.828234934938	8
0	1867	29.050726400661	7
0	1871	29.080882991983	8
0	1880	29.244972749776	7
0	1886	29.321980435731	7
0	1893	29.443682385265	7
0	1899	29.503089735097	7
0	1901	29.51365099946	8
0	1903	29.52413918302	9
0	1914	29.776067396028	8
0	1921	29.819501961622	8
0	1927	29.944762714113	8
0	1934	30.008108975885	8
0	1967	30.684648027879	2
0	1974	30.868621306387	2
0	1980	30.884808315058	2
0	1991	31.119826044033	1
0	2002	31.322416925743	1
0	2005	31.326245217031	1
0	2007	31.343977774546	2
0	2012	31.414969567268	3
0	2018	31.51056620966	3
0	2022	31.528820069848	3
0	2024	31.542038440809	4
0	2033	31.69302078637	4
0	2044	31.881413675029	3
0	2055	32.081612324582	2
0	2064	32.246284234715	1
0	2068	32.299284522529	2
0	2075	32.383472618702	2
0	2077	32.398551719721	3
0	2081	32.45083872273	3
0	2083	32.454217401285	4
0	2085	32.461384939716	5
0	2105	32.866369623596	2
0	2114	32.985913480224	2
0	2118	33.032640736865	2
0	2122	33.09307064405	3
0	2126	33.147556356864	3
0	2133	33.275589777245	3
0	2137	33.280781032463	4
0	2148	33.482058306084	3
0	2152	33.527549490563	3
0	2170	33.898545549753	1
0	2172	33.900222326352	2
0	2183	34.093880050101	1
0	2185	34.120112981018	2
0	2187	34.12129130421	3
0	2196	34.266070712409	2
0	2200	34.310695994461	3
0	2216	34.599157169671	1
0	2224	34.730087006073	1
0	2232	34.868716141275	1
0	2237	34.887545638797	1
0	2239	34.929006893063	2
0	2246	35.002620003062	2
0	2250	35.069866054745	2
0	2252	35.075453060034	3
0	2256	35.116850952301	4
0	2258	35.139164873111	5
0	2260	35.158947823857	6
0	2262	35.160817370899	7
0	2266	35.179569266019	7
0	2275	35.33741053823	7
0	2282	35.399670272628	7
0	2284	35.425020843142	8
0	2295	35.632623949186	7
0	2299	35.674989659322	7
0	2312	35.963444088163	6
0	2328	36.226665974418	4
0	2334	36.32037984619	4
0	2341	36.442259526524	4
0	2347	36.533055929256	4
0	2349	36.536291609721	5
0	2360	36.689374732348	4
0	2362	36.707370466503	5
0	2366	36.776690443457	5
0	2373	36.873838659266	5
0	2375	36.879006949846	6
0	2379	36.965099313514	7
0	2390	37.085196404168	6
0	2392	37.112363211202	7
0	2417	37.600276500001	3
0	2430	37.872411325592	1
0	2434	37.903508106089	2
0	2441	37.998691076843	2
0	2447	38.112350726369	2
0	2454	38.189058691826	2
0	2465	38.388775888575	1
0	2469	38.477913746266	1
0	2478	38.616881452644	1
0	2484	38.74785998978	1
0	2500	39.081653423165	1
0	2503	39.119042072755	1
0	2510	39.199840078095	1
0	2512	39.250626590364	2
0	2514	39.274501877649	3
0	2520	39.298054334991	3
0	2522	39.323214196302	4
0	2524	39.34381740115	5
0	2526	39.36850332803	6
0	2542	39.65741088722	4
0	2548	39.741708764761	4
0	2555	39.876243508084	4
0	2561	39.936411406736	4
0	2568	40.0038358637	4
0	2583	40.355283731754	2
0	2588	40.381085008148	3
0	2596	40.495198798434	2
0	2598	40.524549563626	3
0	2600	40.533464992626	4
0	2602	40.539443088918	5
0	2604	40.54525032513	6
0	2611	40.602240081661	6
0	2613	40.66915145403	7
0	2619	40.706518433469	7
0	2630	40.919385442922	6
0	2637	41.038571253287	6
0	2657	41.41324071467	3
0	2659	41.460682343703	4
0	2665	41.55682630086	4
0	2667	41.576623074393	5
0	2674	41.654820646481	5
0	2676	41.657319481812	6
0	2687	41.8501554955	5
0	2689	41.857117262607	6
0	2700	41.993310435038	5
0	2706	42.107064285592	5
0	2708	42.172187358784	6
0	2715	42.232645480618	6
0	2721	42.345681035209	6
0	2728	42.422593015319	6
0	2734	42.51599904858	6
0	2745	42.742983050158	5
0	2752	42.868403377167	5
0	2776	43.332368629804	1
0	2783	43.395761631743	1
0	2785	43.420210733947	2
0	2789	43.481094025321	3
0	2798	43.589884468682	2
0	2809	43.826776285766	1
0	2811	43.857336775947	2
0	2813	43.872096379236	3
0	2815	43.874183101097	4
0	2821	43.900218242252	4
0	2828	44.042256587811	4
0	2839	44.255612916558	3
0	2845	44.294181685963	3
0	2856	44.528966062106	2
0	2858	44.577329900855	3
0	2867	44.681114908404	3
0	2871	44.769865101252	3
0	2878	44.809122404071	3
0	2889	44.986936737754	2
0	2891	45.060273505071	3
0	2897	45.159423934361	3
0	2899	45.159429469551	4
0	2910	45.365511593639	3
0	2917	45.402887923021	3
0	2919	45.434845388508	4
0	2925	45.490262471413	4
0	2932	45.650234415597	4
0	2943	45.866810783684	3
0	2949	45.887345560558	3
0	2956	46.001251325625	3
0	2971	46.306569792584	1
0	2973	46.367474253855	2
0	2984	46.483785582198	1
0	2986	46.549835890173	2
0	2988	46.57410773954	3
0	2999	46.729574033321	2
0	3015	47.024022061063	1
0	3018	47.050086074001	1
0	3027	47.181336873298	1
0	3038	47.393611538692	1
0	3041	47.422906684541	1
0	3043	47.460549619693	2
0	3047	47.484541971637	3
0	3065	47.800251525779	1
0	3068	47.873274292303	1
0	3074	47.937093152862	1
0	3076	47.939692927381	2
0	3083	48.064028005176	2
0	3087	48.087280507014	3
0	3091	48.103967971137	3
0	3093	48.159251808202	4
0	3102	48.290349045018	4
0	3106	48.337216692616	4
0	3113	48.441137256274	4
0	3119	48.50342018725	4
0	3121	48.527612151727	5
0	3123	48.560133753525	6
0	3128	48.580769552885	7
0	3132	48.669148118488	7
0	3143	48.833955735804	6
0	3154	49.033359655932	5
0	3160	49.170827651312	5
0	3165	49.183330910304	6
0	3171	49.295676960259	6
0	3175	49.368529344532	6
0	3182	49.400949255881	6
0	3184	49.415113459361	7
0	3186	49.434339603445	8
0	3192	49.560520870794	8
0	3201	49.682420805312	8
0	3205	49.732848798637	8
0	3210	49.795052490545	9
0	3214	49.87839031461	9
0	3225	50.061916654904	8
0	3229	50.082162531274	9
0	3233	50.105086963795	9
0	3235	50.120734540833	10
0	3237	50.138761970791	11
0	3244	50.205716029877	11
0	3246	50.219050092204	12
0	3248	50.262995631253	13
0	3257	50.391038066651	13
0	3270	50.673101661493	11
0	3272	50.676194290649	12
0	3283	50.821149768292	11
0	3289	50.958584069734	11
0	3298	51.096680379301	11
0	3302	51.106397147138	11
0	3313	51.340446343204	10
0	3315	51.364966152468	11
0	3317	51.373677010794	12
0	3328	51.512008657409	11
0	3333	51.592347833676	12
0	3341	51.723910459506	11
0	3348	51.811731967378	11
0	3350	51.816400741742	12
0	3365	52.143250381824	10
0	3367	52.16671596675	11
0	3374	52.201267925121	11
0	3376	52.235083396605	12
0	3378	52.262636190309	13
0	3384	52.375728038228	13
0	3389	52.386296755638	14
0	3391	52.392808042117	15
0	3393	52.394464651559	16
0	3397	52.475578753782	16
0	3412	52.740834605334	14
0	3414	52.741762907772	15
0	3421	52.852603883193	15
0	3432	53.031602843641	14
0	3441	53.185385715089	14
0	3463	53.600982824645	10
0	3465	53.634073812763	11
0	3471	53.755642860099	11
0	3478	53.843930914595	11
0	3480	53.863975134104	12
0	3482	53.870584335173	13
0	3488	53.942408983184	13
0	3495	54.008889758139	13
0	3499	54.095746331286	14
0	3517	54.475148709595	11
0	3528	54.630049877511	10
0	3539	54.839205534773	9
0	3545	54.9324667203	9
0	3547	54.973739706973	10
0	3552	54.998381289194	11
0	3569	55.324273386912	8
0	3574	55.385001315774	9
0	3578	55.411359027058	9
0	3589	55.622447904496	8
0	3604	55.920667972043	6
0	3609	55.988448172249	7
0	3622	56.272112191587	5
0	3631	56.397835891144	5
0	3639	56.558381767451	4
0	3646	56.624966016115	4
0	3652	56.724512380452	4
0	3659	56.847800426755	4
0	3670	57.055176573065	3
0	3676	57.12412002685	3
0	3678	57.158795357229	4
0	3689	57.344938521527	3
0	3700	57.533948691337	2
0	3702	57.555558312996	3
0	3709	57.651759505655	3
0	3718	57.80018375392	3
0	3722	57.801516278403	3
0	3737	58.167482011479	1
0	3744	58.210135592683	1
0	3755	58.408410483143	1
0	3758	58.424443892592	1
0	3764	58.576050785575	1
0	3780	58.976845751062	1
0	3798	59.397031693687	1
0	3801	59.462111427923	1
0	3812	59.602178997619	1
0	3815	59.670973345465	1
0	3817	59.671378977597	2
0	3823	59.773397686392	2
0	3830	59.804797476198	2
0	3832	59.850776607976	3
0	3838	59.903623330806	3
0	3840	59.918345834537	4
0	3842	59.974246601536	5
0	3853	60.14690993951	4
0	3858	60.182269597036	5
0	3862	60.203322925856	5
0	3864	60.254594390119	6
0	3870	60.326198921918	6
0	3872	60.339056945646	7
0	3874	60.364458083481	8
0	3894	60.759221410237	5
0	3896	60.769518246609	6
0	3903	60.821626128717	6
0	3914	61.019815162828	5
0	3920	61.104028793112	5
0	3936	61.46492289361	3
0	3942	61.507022223415	3
0	3958	61.831018520105	1
0	3967	61.98654795614	1
0	3978	62.223586714201	1
0	3981	62.276582872128	1
0	3992	62.425325847562	1
0	3995	62.469840781503	1
0	3999	62.510359069737	2
0	4003	62.561358153122	2
0	4005	62.569816102298	3
0	4010	62.605745492811	4
0	4014	62.658042258177	4
0	4023	62.807305474596	4
0	4027	62.83373252101	4
0	4040	63.094389701242	3
0	4042	63.108602252381	4
0	4046	63.147952493493	4
0	4048	63.153443230748	5
0	4064	63.458929208649	3
0	4073	63.588243994529	3
0	4075	63.589648653653	4
0	4077	63.590797978674	5
0	4081	63.667040347095	5
0	4090	63.814260762894	5
0	4094	63.850584984784	5
0	4096	63.86647830275	6
0	4109	64.080916849201	5
0	4111	64.089203076493	6
0	4113	64.118054347528	7
0	4117	64.127441802256	7
0	4124	64.240579679016	7
0	4130	64.352068421207	7
0	4139	64.518364999274	7
0	4143	64.546517401521	7
0	4148	64.603106855684	8
0	4152	64.657672627161	8
0	4161	64.797159536287	8
0	4165	64.878661369377	8
0	4176	65.055623351698	7
0	4187	65.252629108257	6
0	4191	65.300276966517	7
0	4200	65.430121530077	6
0	4202	65.440274938471	7
0	4204	65.471790941343	8
0	4208	65.501381128668	9
0	4210	65.51547791711	10
0	4217	65.605110837612	10
0	4219	65.610807490859	11
0	4223	65.675524961263	11
0	4227	65.711421093101	12
0	4231	65.7783513803	12
0	4236	65.808748536223	13
0	4240	65.870092445182	13
0	4246	65.930998890714	13
0	4251	66.005357209892	14
0	4257	66.120331348667	14
0	4261	66.178673725771	14
0	4270	66.297623350904	14
0	4281	66.489107576668	13
0	4283	66.522447910506	14
0	4287	66.57926495888	14
0	4294	66.627056757631	14
0	4303	66.802428222133	14
0	4305	66.822413775925	15
0	4311	66.893614582487	15
0	4320	67.04898913269	14
0	4322	67.058022857098	15
0	4324	67.063875646993	16
0	4330	67.171768337843	16
0	4339	67.291169674903	16
0	4341	67.314311772099	17
0	4350	67.465133295262	16
0	4361	67.653045138683	15
0	4370	67.803286418054	15
0	4376	67.917655480113	15
0	4380	67.947687988142	15
0	4382	67.967334176732	16
0	4387	68.014144822055	17
0	4389	68.021386733066	18
0	4395	68.109962797669	18
0	4397	68.110936338603	19
0	4401	68.142794723391	19
0	4412	68.365403122335	18
0	4417	68.411742125089	19
0	4421	68.426067427227	19
0	4423	68.448014243316	20
0	4432	68.599060403438	20
0	4436	68.660652331816	20
0	4449	68.919897192694	19
0	4451	68.924460997644	20
0	4460	69.050050346078	19
0	4469	69.210892130987	19
0	4473	69.278387228352	19
0	4477	69.286395113946	20
0	4481	69.349788326595	20
0	4486	69.422942860508	21
0	4499	69.637252830551	19
0	4501	69.673897959734	20
0	4507	69.740921147392	20
0	4514	69.827087896572	20
0	4518	69.880628331681	21
0	4534	70.201109214642	19
0	4536	70.220238819232	20
0	4542	70.323963328642	20
0	4549	70.388454177759	20
0	4551	70.392054460734	21
0	4559	70.545139302628	20
0	4564	70.60142182281	21
0	4570	70.682711658929	21
0	4574	70.754050087209	21
0	4576	70.771469603246	22
0	4583	70.848294937433	22
0	4585	70.863823495983	23
0	4591	70.978203033895	23
0	4600	71.083031944391	23
0	4602	71.11554903144	24
0	4609	71.19303326939	24
0	4611	71.206828592583	25
0	4615	71.246234349778	25
0	4619	71.296103583065	26
0	4621	71.312004784745	27
0	4637	71.6252877337	25
0	4641	71.642707605358	25
0	4643	71.663426123583	26
0	4645	71.677284805725	27
0	4658	71.911608798734	26
0	4665	71.998102609677	26
0	4669	72.076586311636	26
0	4673	72.086266058867	27
0	4677	72.147314343367	27
0	4691	72.388715986418	26
0	4702	72.60245815546	25
0	4704	72.611119854905	26
0	4708	72.672480275879	26
0	4719	72.833613475791	25
0	4725	72.962409673299	25
0	4736	73.172073300651	24
0	4741	73.222993549338	25
0	4745	73.232805501601	25
0	4756	73.467192465681	24
0	4760	73.522758356997	25
0	4769	73.639884726492	24
0	4773	73.703982081018	25
0	4780	73.824253459401	25
0	4786	73.911050457603	25
0	4790	73.950758552605	25
0	4797	74.076722669667	25
0	4806	74.218101002621	25
0	4808	74.220845212664	26
0	4814	74.321922128974	26
0	4823	74.453374338782	25
0	4827	74.480820690982	26
0	4836	74.62647671214	25
0	4838	74.643976216962	26
0	4840	74.644957660602	27
0	4849	74.804113272881	27
0	4853	74.840971566842	27
0	4868	75.160797064519	25
0	4873	75.18730637466	26
0	4877	75.248580919146	26
0	4881	75.318583482758	27
0	4888	75.407983623026	27
0	4903	75.715291145305	25
0	4914	75.91028883649	24
0	4921	75.991890692886	24
0	4925	76.052996449015	24
0	4927	76.063251638315	25
0	4942	76.366645895555	23
0	4949	76.463846984661	23
0	4955	76.549590494922	23
0	4966	76.748384440406	22
0	4975	76.920291371585	22
0	4979	76.937445234322	22
0	4990	77.176963213261	21
0	5015	77.665313112296	17
0	5026	77.834336607772	16
0	5028	77.843219846037	17
0	5030	77.860585502358	18
0	5032	77.870507655006	19
0	5038	77.969635605582	19
0	5045	78.07004072297	19
0	5049	78.120862668375	20
0	5065	78.419040634108	18
0	5069	78.425517203387	18
0	5082	78.701577648955	17
0	5086	78.756748010214	17
0	5091	78.816056169947	18
0	5095	78.845989008189	18
0	5101	78.976072750935	18
0	5112	79.165145666378	17
0	5121	79.300717517763	17
0	5123	79.304104703287	18
0	5127	79.340775218666	18
0	5143	79.660151405934	16
0	5145	79.672908763314	17
0	5149	79.716816461873	18
0	5153	79.775493342541	18
0	5158	79.819608823614	19
0	5162	79.869329752248	19
0	5164	79.870976080646	20
0	5170	79.946872558071	20
0	5172	79.967357784786	21
0	5183	80.154021831804	20
0	5188	80.205314530987	21
0	5194	80.282160788726	21
0	5207	80.547079614949	19
0	5214	80.661107502641	19
0	5216	80.671600777374	20
0	5222	80.76555097596	20
0	5238	81.056142936326	18
0	5240	81.06651001999	19
0	5251	81.270139438717	18
0	5255	81.27979356662	19
0	5259	81.340336944784	19
0	5261	81.346096236466	20
0	5266	81.385652796506	21
0	5268	81.394703543521	22
0	5270	81.421197037285	23
0	5274	81.448269476359	23
0	5280	81.543581730186	23
0	5291	81.726535945772	22
0	5293	81.729899337864	23
0	5298	81.803791339858	24
0	5300	81.805364252235	25
0	5304	81.877328742004	25
0	5310	81.933329579337	25
0	5317	82.03826379593	25
0	5319	82.045313990766	26
0	5323	82.123969899955	27
0	5327	82.152997241467	27
0	5329	82.156297639973	28
0	5334	82.181292721638	29
0	5338	82.268078908627	29
0	5342	82.2972735158	30
0	5351	82.444715738278	29
0	5353	82.458763309974	30
0	5357	82.505960118751	31
0	5359	82.507171043257	32
0	5363	82.574706630274	32
0	5368	82.586978131006	33
0	5388	82.986734478678	30
0	5394	83.083093748307	30
0	5396	83.111151340925	31
0	5414	83.477107552771	28
0	5418	83.523999685498	29
0	5443	83.988027685093	25
0	5445	83.992701175267	26
0	5449	84.045304254843	26
0	5453	84.082420426923	27
0	5455	84.100208102709	28
0	5464	84.278301570198	27
0	5473	84.380123328079	27
0	5481	84.544641670786	26
0	5486	84.612036015208	27
0	5492	84.714207849949	27
0	5514	85.168990235135	23
0	5519	85.214893027884	24
0	5521	85.221646443572	25
0	5525	85.259152637884	25
0	5534	85.412046524955	25
0	5542	85.573912631597	24
0	5547	85.607936353558	25
0	5549	85.615241519273	26
0	5553	85.642872038566	26
0	5559	85.757938297859	26
0	5566	85.866558628975	26
0	5570	85.914479898423	27
0	5574	85.942724569619	27
0	5581	86.043217900525	27
0	5587	86.152837156626	27
0	5601	86.414401249868	26
0	5607	86.487239007171	26
0	5616	86.679612864238	25
0	5622	86.734793076402	25
0	5627	86.803644465206	26
0	5633	86.884542434719	26
0	5637	86.940375113645	26
0	5639	86.974209725515	27
0	5650	87.147121689283	26
0	5657	87.269734910506	26
0	5666	87.403762506704	26
0	5670	87.457352386238	26
0	5674	87.516618128032	27
0	5678	87.561332118292	27
0	5696	87.908396626346	25
0	5707	88.084805365565	24
0	5711	88.129929245414	24
0	5725	88.388911859964	23
0	5729	88.439584181354	23
0	5731	88.44429410846	24
0	5737	88.578496082578	24
0	5742	88.604974309912	25
0	5746	88.664591499052	25
0	5750	88.70744225947	26
0	5766	88.984356707754	24
0	5774	89.15307853663	23
0	5779	89.182815889421	24
0	5799	89.606117469054	21
0	5803	89.654205291484	21
0	5821	90.001490862074	19
0	5827	90.120939856425	19
0	5840	90.356273333232	17
0	5854	90.583644049901	16
0	5856	90.618820788444	17
0	5860	90.631724638762	17
0	5882	91.114696663559	14
0	5886	91.142343935213	14
0	5888	91.171034844751	15
0	5893	91.196946070339	16
0	5895	91.208140524453	17
0	5899	91.275378814657	17
0	5914	91.576875641876	15
0	5928	91.798997060196	14
0	5932	91.825578715098	14
0	5934	91.869912154698	15
0	5943	91.986955727699	15
0	5947	92.035607641675	15
0	5949	92.041620478588	16
0	5962	92.290183587023	15
0	5969	92.421379895131	15
0	5973	92.433463034757	15
0	5984	92.646933274211	14
0	5990	92.746663166628	14
0	5992	92.778468621147	15
0	5997	92.792718915712	16
0	6001	92.840370497809	16
0	6005	92.887250066973	17
0	6009	92.934137882536	17
0	6011	92.973354011498	18
0	6020	93.111499919483	18
0	6029	93.225479460149	17
0	6031	93.252635039317	18
0	6040	93.411370762286	18
0	6044	93.430227234711	18
0	6048	93.500331785644	19
0	6052	93.559986777332	19
0	6057	93.595118905486	20
0	6061	93.631426789504	20
0	6072	93.848549377639	19
0	6083	94.031302004421	18
0	6085	94.074668489958	19
0	6089	94.101815486601	20
0	6098	94.23590565906	19
0	6102	94.305699413943	20
0	6109	94.386748728661	20
0	6122	94.672491263443	18
0	6126	94.694995512829	19
0	6133	94.795507077686	19
0	6137	94.875029297817	19
0	6148	95.076987748139	18
0	6154	95.150310282007	18
0	6170	95.432001455003	16
0	6172	95.47489263858	17
0	6181	95.613828489275	17
0	6183	95.616321298848	18
0	6191	95.736577033319	17
0	6193	95.752691291202	18
0	6211	96.096785695961	16
0	6213	96.110925007234	17
0	6240	96.629437949537	12
0	6246	96.75250983464	12
0	6251	96.812625299278	13
0	6259	96.936093286883	12
0	6261	96.943443924625	13
0	6268	97.03805409875	13
0	6270	97.072697431499	14
0	6279	97.184143254671	14
0	6281	97.200672555903	15
0	6285	97.260005612729	15
0	6289	97.314045882489	16
0	6298	97.433144027829	15
0	6300	97.447218543372	16
0	6304	97.494752510336	17
0	6311	97.587416370366	17
0	6313	97.597955983357	18
0	6317	97.646213504873	18
0	6332	97.968745113245	16
0	6346	98.194492792321	15
0	6348	98.202011973237	16
0	6365	98.545574312485	13
0	6367	98.54752324178	14
0	6374	98.62668415124	14
0	6392	99.015775160281	12
0	6396	99.047909190568	12
0	6398	99.063982194625	13
0	6404	99.153687496036	13
0	6409	99.18362279633	14
0	6420	99.41069380707	13
0	6424	99.434968350806	13
0	6428	99.487179481247	14
0	6432	99.57390868313	14
0	6439	99.654222360322	14
0	6459	100.026163191412	11
0	6461	100.057860929401	12
0	6465	100.089745034242	13
0	6469	100.150523510654	13
0	6487	100.501429865754	11
0	6491	100.55279842708	11
0	6493	100.555381231523	12
0	6498	100.583938123573	13
0	6509	100.802902795029	12
0	6513	100.873397727167	12
0	6522	100.996706599889	12
0	6526	101.033868175372	12
0	6528	101.066409847088	13
0	6532	101.113096281444	14
0	6545	101.338345568451	12
0	6550	101.412783394591	13
0	6552	101.415471456542	14
0	6560	101.554339183929	13
0	6567	101.652592018201	13
0	6571	101.693164652588	14
0	6575	101.733144179836	14
0	6589	101.991055492915	13
0	6606	102.332547983158	10
0	6617	102.530829241185	9
0	6619	102.549290828476	10
0	6621	102.554282388719	11
0	6635	102.786034994976	10
0	6637	102.815290055095	11
0	6641	102.855328208241	11
0	6645	102.914411730281	12
0	6658	103.134444662325	10
0	6660	103.145496249985	11
0	6665	103.217332833506	12
0	6669	103.260176936385	12
0	6675	103.331640355123	12
0	6682	103.466385237492	12
0	6686	103.515296078554	13
0	6695	103.629400411979	12
0	6699	103.704921593755	13
0	6706	103.802309452903	13
0	6721	104.091821214605	11
0	6728	104.215791022667	11
0	6741	104.439155007777	9
0	6743	104.462086724941	10
0	6749	104.575132444772	10
0	6754	104.616941610666	11
0	6760	104.718836928774	11
0	6769	104.831612972131	10
0	6773	104.911100255738	11
0	6784	105.122490937203	10
0	6788	105.154330238809	10
0	6795	105.232785908501	10
0	6797	105.248834319237	11
0	6801	105.282060381595	12
0	6810	105.476065202583	11
0	6812	105.479135379884	12
0	6821	105.579936733932	12
0	6827	105.70384038467	12
0	6831	105.739456962826	12
0	6833	105.740248497477	13
0	6838	105.801907806329	14
0	6842	105.848537508973	14
0	6844	105.851020829748	15
0	6850	105.926637454527	15
0	6855	106.008296723412	16
0	6868	106.263544372767	14
0	6872	106.308353169605	15
0	6874	106.317728708366	16
0	6881	106.387586808974	16
0	6885	106.439664695461	16
0	6887	106.456344271273	17
0	6889	106.45880563568	18
0	6893	106.514232483021	19
0	6897	106.556180415368	19
0	6911	106.792809441753	18
0	6917	106.890156696118	18
0	6919	106.891011497983	19
0	6921	106.923732536116	20
0	6939	107.270671919994	17
0	6943	107.294212506644	18
0	6950	107.411619520323	18
0	6952	107.423915777012	19
0	6956	107.434387004355	19
0	6960	107.520458475106	20
0	6964	107.554675944268	20
0	6971	107.673508860297	20
0	6977	107.75096053909	20
0	6984	107.86242163939	20
0	6993	107.991210663301	20
0	7008	108.288531497249	18
0	7012	108.337775634887	18
0	7014	108.338046322345	19
0	7016	108.363804808979	20
0	7023	108.467989255461	20
0	7029	108.528660496385	20
0	7034	108.620387676076	21
0	7051	108.97823784866	18
0	7058	109.067090719893	18
0	7069	109.246558031293	17
0	7084	109.575622914319	15
0	7098	109.82188734126	14
0	7100	109.823588903633	15
0	7108	109.933635756681	14
0	7115	110.052867334103	14
0	7119	110.110968199649	15
0	7128	110.278996439657	14
0	7137	110.394543912532	14
0	7141	110.465839560445	14
0	7147	110.570422089724	14
0	7152	110.611063376399	15
0	7154	110.614016557515	16
0	7162	110.770482212585	15
0	7176	111.02247108197	14
0	7180	111.032701260071	14
0	7184	111.110889702381	15
0	7188	111.169235719612	15
0	7213	111.641875239298	11
0	7217	111.715262236	12
0	7221	111.763567538426	12
0	7230	111.881970312061	12
0	7239	112.046305635582	11
0	7241	112.055834083869	12
0	7245	112.117639321583	13
0	7249	112.143485246455	13
0	7258	112.318830058283	13
0	7262	112.371644457355	13
0	7269	112.449105830991	13
0	7275	112.546735033288	13
0	7286	112.765006422217	12
0	7300	112.983008466933	11
0	7311	113.195123912618	10
0	7317	113.291573888794	10
0	7321	113.331368728259	10
0	7323	113.345693598638	11
0	7328	113.397516383448	12
0	7348	113.791662251911	9
0	7352	113.870330563457	9
0	7363	114.075735811843	8
0	7369	114.172940708691	8
0	7376	114.242801065386	8
0	7380	114.29050084048	9
0	7393	114.546052612146	7
0	7398	114.624169491145	8
0	7404	114.702122994028	8
0	7406	114.715010858632	9
0	7419	114.971804121502	7
0	7428	115.085965673854	7
0	7437	115.263101005786	6
0	7441	115.296945119068	7
0	7459	115.642046132004	4
0	7461	115.646438855417	5
0	7474	115.898740601552	4
0	7476	115.911081548703	5
0	7478	115.914751455731	6
0	7482	115.926004450369	6
0	7484	115.945214007984	7
0	7489	115.98326510284	8
0	7493	116.032552979677	8