version 3
run General-0-20240530-17:53:50-12982
attr configname General
attr datetime 20240530-17:53:50
attr datetimef 20240530-175350
attr experiment General
attr inifile omnetpp.ini
attr iterationvars ""
attr iterationvarsd ""
attr iterationvarsf ""
attr measurement ""
attr network Network
attr processid 12982
attr repetition 0
attr replication #0
attr resultdir results
attr runnumber 0
attr seedset 0
config network Network
config sim-time-limit 200s
config Network.node[{0,1,2,3,4,6,7}].app.interArrivalTime exponential(1)
config Network.node[{0,1,2,3,4,6,7}].app.packetByteSize 125000
config Network.node[{0,1,2,3,4,6,7}].app.destination 5

vector 0 Network.node[7].lnk[1] "Buffer Size" ETV
vector 1 Network.node[6].lnk[1] "Buffer Size" ETV
vector 2 Network.node[0].lnk[1] "Buffer Size" ETV
vector 3 Network.node[4].lnk[1] "Buffer Size" ETV
vector 4 Network.node[1].lnk[1] "Buffer Size" ETV
vector 5 Network.node[3].lnk[1] "Buffer Size" ETV
vector 6 Network.node[2].lnk[1] "Buffer Size" ETV
vector 7 Network.node[5].net "envios por lnk0" ETV
vector 8 Network.node[5].net "Hops de 4" ETV
vector 9 Network.node[5].net "duracion de 4" ETV
vector 10 Network.node[5].app Delay ETV
vector 11 Network.node[0].lnk[0] "Buffer Size" ETV
vector 12 Network.node[1].lnk[0] "Buffer Size" ETV
vector 13 Network.node[2].lnk[0] "Buffer Size" ETV
vector 14 Network.node[3].lnk[0] "Buffer Size" ETV
vector 15 Network.node[4].lnk[0] "Buffer Size" ETV
vector 16 Network.node[5].lnk[0] "Buffer Size" ETV
vector 17 Network.node[5].lnk[1] "Buffer Size" ETV
vector 18 Network.node[6].lnk[0] "Buffer Size" ETV
vector 19 Network.node[7].lnk[0] "Buffer Size" ETV
vector 20 Network.node[5].net "Hops de 3" ETV
vector 21 Network.node[5].net "duracion de 3" ETV
vector 22 Network.node[5].net "Hops de 7" ETV
vector 23 Network.node[5].net "duracion de 7" ETV
vector 24 Network.node[5].net "Hops de 6" ETV
vector 25 Network.node[5].net "duracion de 6" ETV
vector 26 Network.node[5].net "Hops de 2" ETV
vector 27 Network.node[5].net "duracion de 2" ETV
vector 28 Network.node[5].net "Hops de 0" ETV
vector 29 Network.node[5].net "duracion de 0" ETV
vector 30 Network.node[5].net "Hops de 1" ETV
vector 31 Network.node[5].net "duracion de 1" ETV
0	3	0.353159139138	1
0	4	0.353159139138	0
0	33	1.485228163722	1
0	34	1.485228163722	0
0	81	2	1
0	118	2.0001	2
0	139	2.485228163722	1
0	143	2.485228163722	0
0	146	2.485228163722	1
0	147	2.485228163722	0
0	328	4	1
0	336	4	0
0	361	4.0001	1
0	369	4.0001	0
0	471	5.174937647023	1
0	472	5.174937647023	0
0	539	6	1
0	560	6.0001	2
0	595	6.174937647023	1
0	596	6.174937647023	0
0	639	6.788939721916	1
0	640	6.788939721916	0
0	741	7.05007022435	1
0	765	7.661260916958	2
0	769	7.788939721916	1
0	832	8	2
0	888	8.030004648964	3
0	893	8.05007022435	4
0	905	8.399088208714	5
0	930	8.788939721916	4
0	984	9.008170631897	5
0	1028	9.05007022435	6
0	1051	9.788939721916	5
0	1052	9.788939721916	4
0	1053	9.788939721916	3
0	1084	9.969551570963	4
0	1112	10	5
0	1184	10.05007022435	6
0	1200	10.788939721916	5
0	1288	11.05007022435	6
0	1295	11.114690525663	7
0	1299	11.788939721916	6
0	1359	12	7
0	1468	12.788939721916	6
0	1565	13.555237446019	7
0	1572	13.788939721916	6
0	1636	14	7
0	1702	14.555237446019	8
0	1710	14.788939721916	7
0	1711	14.788939721916	6
0	1795	15.788939721916	5
0	1873	16	6
0	1956	16.788939721916	5
0	2022	17.030004648964	6
0	2046	17.684245647844	7
0	2047	17.788939721916	6
0	2048	17.788939721916	5
0	2119	18	6
0	2199	18.788939721916	5
0	2200	18.788939721916	4
0	2274	19.030004648964	5
0	2303	19.788939721916	4
0	2304	19.788939721916	3
0	2305	19.788939721916	2
0	2378	20	3
0	2453	20.788939721916	2
0	2454	20.788939721916	1
0	2455	20.788939721916	0
0	2622	22	1
0	2628	22	0
0	2672	22.030004648964	1
0	2673	22.030004648964	0
0	2853	24	1
0	2859	24	0
0	3055	26	1
0	3059	26	0
0	3104	26.030004648964	1
0	3105	26.030004648964	0
0	3328	28	1
0	3335	28	0
0	3395	28.030004648964	1
0	3396	28.030004648964	0
0	3564	30	1
0	3571	30	0
0	3704	31.030004648964	1
0	3705	31.030004648964	0
0	3785	32	1
0	3792	32	0
0	3937	33.030004648964	1
0	3938	33.030004648964	0
0	3961	33.585562982251	1
0	3962	33.585562982251	0
0	4031	34	1
0	4104	34.585562982251	0
0	4111	34.585562982251	1
0	4113	34.585562982251	0
0	4173	35.030004648964	1
0	4200	35.585562982251	0
0	4278	36	1
0	4282	36	0
0	4437	37.030004648964	1
0	4438	37.030004648964	0
0	4559	38	1
0	4563	38	0
0	4615	38.28804733348	1
0	4617	38.28804733348	0
0	4738	39.28804733348	1
0	4739	39.28804733348	0
0	4746	39.327979658944	1
0	4804	40	2
0	4846	40.28804733348	1
0	4910	40.968877236871	2
0	4959	41.030004648964	3
0	4981	41.28804733348	2
0	4982	41.28804733348	1
0	5005	41.602339854594	2
0	5060	42	3
0	5118	42.28804733348	2
0	5119	42.28804733348	1
0	5216	43.28804733348	0
0	5244	43.628248671697	1
0	5245	43.628248671697	0
0	5307	44	1
0	5360	44.372783815907	2
0	5368	44.628248671697	1
0	5369	44.628248671697	0
0	5440	45.030004648964	1
0	5465	45.274967773024	2
0	5479	45.628248671697	1
0	5480	45.628248671697	0
0	5491	45.819824901169	1
0	5550	46	2
0	5625	46.628248671697	1
0	5706	47.628248671697	0
0	5764	48	1
0	5768	48	0
0	5808	48.030004648964	1
0	5809	48.030004648964	0
0	5974	49.529785493073	1
0	5975	49.529785493073	0
0	6035	50	1
0	6100	50.529785493073	0
0	6260	52	1
0	6264	52	0
0	6301	52.030004648964	1
0	6302	52.030004648964	0
0	6336	52.41432978148	1
0	6337	52.41432978148	0
0	6501	54	1
0	6505	54	0
0	6580	54.41150174897	1
0	6581	54.41150174897	0
0	6616	54.919366871657	1
0	6678	55.41150174897	0
0	6684	55.521045858181	1
0	6747	56	2
0	6791	56.030004648964	3
0	6818	56.41150174897	2
0	6934	57.41150174897	1
0	6935	57.41150174897	0
0	7018	58	1
0	7023	58	0
0	7143	59.035524538718	1
0	7144	59.035524538718	0
0	7241	60	1
0	7289	60.035524538718	0
0	7299	60.165880084629	1
0	7300	60.165880084629	0
0	7310	60.410371106672	1
0	7391	61.030004648964	2
0	7422	61.165880084629	1
0	7439	61.498275540286	2
0	7486	61.981913927776	3
0	7510	62	4
0	7555	62.165880084629	3
0	7556	62.165880084629	2
0	7587	62.86941585626	3
0	7590	62.869471208155	4
0	7641	63.030004648964	5
0	7664	63.165880084629	4
0	7744	64	5
0	7794	64.165880084629	4
0	7795	64.165880084629	3
0	7833	64.930292449036	4
0	7872	65.030004648964	5
0	7887	65.165880084629	4
0	7893	65.173010942708	5
0	7985	66	6
0	8043	66.165880084629	5
0	8044	66.165880084629	4
0	8045	66.165880084629	3
0	8127	67.030004648964	4
0	8149	67.165880084629	3
0	8150	67.165880084629	2
0	8238	68	3
0	8306	68.117491220131	4
0	8307	68.165880084629	3
0	8308	68.165880084629	2
0	8309	68.165880084629	1
0	8310	68.165880084629	0
0	8366	69.001276876164	1
0	8387	69.030004648964	2
0	8406	69.165880084629	1
0	8423	69.32547598965	2
0	8429	69.467118024445	3
0	8513	70	4
0	8581	70.165880084629	3
0	8582	70.165880084629	2
0	8621	70.728930697932	3
0	8678	71.030004648964	4
0	8700	71.165880084629	3
0	8793	72	4
0	8853	72.165880084629	3
0	8854	72.165880084629	2
0	8863	72.17848547436	3
0	8916	73.030004648964	4
0	8948	73.056700553078	5
0	8952	73.165880084629	4
0	8953	73.165880084629	3
0	8954	73.165880084629	2
0	8969	73.402220136787	3
0	8999	73.677748073825	4
0	9054	74	5
0	9105	74.165880084629	4
0	9106	74.165880084629	3
0	9183	75.030004648964	4
0	9197	75.165880084629	3
0	9203	75.215576788302	4
0	9213	75.416018983388	5
0	9287	76	6
0	9355	76.134265463496	7
0	9359	76.165880084629	6
0	9419	77.030004648964	7
0	9440	77.066877318765	8
0	9441	77.165880084629	7
0	9442	77.165880084629	6
0	9443	77.165880084629	5
0	9458	77.3304544316	6
0	9519	78	7
0	9592	78.165880084629	6
0	9671	79.030004648964	7
0	9679	79.165880084629	6
0	9680	79.165880084629	5
0	9693	79.441343205983	6
0	9769	80	7
0	9841	80.10718569262	8
0	9842	80.165880084629	7
0	9843	80.165880084629	6
0	9858	80.453938996409	7
0	9928	81.030004648964	8
0	9936	81.165880084629	7
0	10018	82	8
0	10089	82.165880084629	7
0	10090	82.165880084629	6
0	10091	82.165880084629	5
0	10116	82.344040694505	6
0	10167	83.030004648964	7
0	10175	83.165880084629	6
0	10176	83.165880084629	5
0	10204	83.744716391465	6
0	10223	83.891941428778	7
0	10266	84	8
0	10331	84.165880084629	7
0	10350	84.450949098769	8
0	10423	85.030004648964	9
0	10442	85.165880084629	8
0	10443	85.165880084629	7
0	10444	85.165880084629	6
0	10455	85.166994416763	7
0	10530	86	8
0	10553	86.0091307196	9
0	10588	86.165880084629	8
0	10589	86.165880084629	7
0	10673	87.030004648964	8
0	10681	87.165880084629	7
0	10702	87.564425079955	8
0	10759	88	9
0	10811	88.074415913804	10
0	10812	88.165880084629	9
0	10813	88.165880084629	8
0	10839	88.59738356746	9
0	10848	88.739509078853	10
0	10911	89.030004648964	11
0	10933	89.165880084629	10
0	10934	89.165880084629	9
0	11040	90	10
0	11096	90.165880084629	9
0	11097	90.165880084629	8
0	11170	91.030004648964	9
0	11187	91.165880084629	8
0	11188	91.165880084629	7
0	11217	91.79436885786	8
0	11292	92	9
0	11348	92.165880084629	8
0	11349	92.165880084629	7
0	11441	93.030004648964	8
0	11462	93.092814493465	9
0	11469	93.165880084629	8
0	11506	93.836397685241	9
0	11557	94	10
0	11598	94.165880084629	9
0	11617	94.221039703994	10
0	11697	95.165880084629	9
0	11698	95.165880084629	8
0	11699	95.165880084629	7
0	11700	95.165880084629	6
0	11725	95.410535955329	7
0	11738	95.590112330265	8
0	11744	95.786574216162	9
0	11750	95.858993326277	10
0	11761	95.868728735618	11
0	11823	96	12
0	11868	96.165880084629	11
0	11869	96.165880084629	10
0	11870	96.165880084629	9
0	11881	96.187312583497	10
0	11901	96.410535955329	11
0	11922	96.650702611037	12
0	11996	97.165880084629	11
0	12020	97.410535955329	12
0	12102	98	13
0	12136	98.030004648964	14
0	12156	98.165880084629	13
0	12157	98.165880084629	12
0	12261	99.165880084629	11
0	12267	99.24315121982	12
0	12282	99.376256148353	13
0	12367	100	14
0	12414	100.056049581006	15
0	12421	100.165880084629	14
0	12432	100.376256148353	15
0	12530	101.104338685962	16
0	12534	101.165880084629	15
0	12540	101.20113615827	16
0	12555	101.376256148353	17
0	12636	102	18
0	12671	102.030004648964	19
0	12695	102.165880084629	18
0	12706	102.376256148353	19
0	12784	103.165880084629	18
0	12814	103.376256148353	19
0	12824	103.615152588778	20
0	12899	104	21
0	12928	104.030004648964	22
0	12944	104.165880084629	21
0	12945	104.165880084629	20
0	12962	104.376256148353	21
0	12977	104.786416283725	22
0	13061	105.060879805729	23
0	13062	105.165880084629	22
0	13068	105.235874853947	23
0	13071	105.245689290345	24
0	13092	105.376256148353	25
0	13182	106	26
0	13239	106.165880084629	25
0	13250	106.376256148353	26
0	13262	106.837245413138	27
0	13285	106.939797306142	28
0	13332	107.165880084629	27
0	13359	107.376256148353	28
0	13425	108	29
0	13474	108.165880084629	28
0	13475	108.165880084629	27
0	13476	108.165880084629	26
0	13507	108.376256148353	27
0	13580	109.165880084629	26
0	13607	109.376256148353	27
0	13683	110	28
0	13720	110.030004648964	29
0	13736	110.165880084629	28
0	13737	110.165880084629	27
0	13766	110.376256148353	28
0	13836	111.165880084629	27
0	13919	112	28
0	13996	112.165880084629	27
0	14077	113.030004648964	28
0	14088	113.165880084629	27
0	14192	114	28
0	14242	114.165880084629	27
0	14255	114.23292588232	28
0	14354	115.165880084629	27
0	14355	115.165880084629	26
0	14356	115.165880084629	25
0	14376	115.373204759239	26
0	14443	116	27
0	14503	116.165880084629	26
0	14523	116.373204759239	27
0	14595	117.030004648964	28
0	14609	117.165880084629	27
0	14630	117.373204759239	28
0	14731	118	29
0	14781	118.165880084629	28
0	14782	118.165880084629	27
0	14783	118.165880084629	26
0	14802	118.373204759239	27
0	14869	119.165880084629	26
0	14884	119.373204759239	27
0	14952	120	28
0	15012	120.165880084629	27
0	15026	120.373204759239	28
0	15100	121.030004648964	29
0	15108	121.165880084629	28
0	15135	121.373204759239	29
0	15210	122	30
1	7	0.485128163722	1
1	8	0.485128163722	0
1	11	0.543512832815	1
1	30	1.485128163722	0
1	79	2	1
1	126	2.0001	2
1	135	2.485128163722	1
1	136	2.485128163722	0
1	326	4	1
1	335	4	0
1	406	4.61923699089	1
1	407	4.61923699089	0
1	537	6	1
1	544	6	0
1	590	6.04997022435	1
1	591	6.04997022435	0
1	623	6.427606255165	1
1	636	6.78493464554	2
1	735	7.04997022435	1
1	736	7.04997022435	0
1	775	7.806366519889	1
1	830	8	2
1	847	8.0001	3
1	890	8.04997022435	2
1	902	8.341932240117	3
1	1019	9.04997022435	2
1	1020	9.04997022435	1
1	1021	9.04997022435	0
1	1047	9.677222424741	1
1	1110	10	2
1	1168	10.030104648964	3
1	1181	10.04997022435	2
1	1279	11.04997022435	1
1	1280	11.04997022435	0
1	1357	12	1
1	1362	12	0
1	1426	12.030104648964	1
1	1427	12.030104648964	0
1	1463	12.555137446019	1
1	1464	12.555137446019	0
1	1558	13.49119900579	1
1	1562	13.555137446019	0
1	1634	14	1
1	1696	14.555137446019	0
1	1871	16	1
1	1877	16	0
1	1954	16.684145647844	1
1	1955	16.684145647844	0
1	2117	18	1
1	2123	18	0
1	2170	18.030104648964	1
1	2171	18.030104648964	0
1	2376	20	1
1	2382	20	0
1	2430	20.030104648964	1
1	2431	20.030104648964	0
1	2620	22	1
1	2627	22	0
1	2760	23.030104648964	1
1	2761	23.030104648964	0
1	2851	24	1
1	2858	24	0
1	3053	26	1
1	3058	26	0
1	3117	26.030104648964	1
1	3118	26.030104648964	0
1	3326	28	1
1	3334	28	0
1	3562	30	1
1	3570	30	0
1	3626	30.030104648964	1
1	3627	30.030104648964	0
1	3783	32	1
1	3791	32	0
1	3875	32.585462982251	1
1	3876	32.585462982251	0
1	3894	32.961201824658	1
1	3958	33.585462982251	0
1	4029	34	1
1	4083	34.030104648964	2
1	4100	34.585462982251	1
1	4101	34.585462982251	0
1	4276	36	1
1	4281	36	0
1	4474	37.28794733348	1
1	4475	37.28794733348	0
1	4557	38	1
1	4605	38.131835806071	2
1	4609	38.28794733348	1
1	4610	38.28794733348	0
1	4724	39.030104648964	1
1	4731	39.28794733348	0
1	4802	40	1
1	4807	40	0
1	5058	42	1
1	5064	42	0
1	5240	43.372683815907	1
1	5241	43.372683815907	0
1	5305	44	1
1	5354	44.372683815907	0
1	5449	45.030104648964	1
1	5450	45.030104648964	0
1	5548	46	1
1	5554	46	0
1	5762	48	1
1	5767	48	0
1	6033	50	1
1	6038	50	0
1	6176	51.030104648964	1
1	6177	51.030104648964	0
1	6258	52	1
1	6263	52	0
1	6499	54	1
1	6504	54	0
1	6558	54.030104648964	1
1	6559	54.030104648964	0
1	6745	56	1
1	6751	56	0
1	6906	57.030104648964	1
1	6907	57.030104648964	0
1	7016	58	1
1	7022	58	0
1	7239	60	1
1	7245	60	0
1	7402	61.030104648964	1
1	7403	61.030104648964	0
1	7508	62	1
1	7514	62	0
1	7742	64	1
1	7747	64	0
1	7983	66	1
1	7988	66	0
1	8134	67.030104648964	1
1	8135	67.030104648964	0
1	8236	68	1
1	8241	68	0
1	8511	70	1
1	8516	70	0
1	8557	70.030104648964	1
1	8558	70.030104648964	0
1	8791	72	1
1	8796	72	0
1	8838	72.030104648964	1
1	8839	72.030104648964	0
1	9052	74	1
1	9057	74	0
1	9093	74.030104648964	1
1	9094	74.030104648964	0
1	9285	76	1
1	9290	76	0
1	9334	76.030104648964	1
1	9335	76.030104648964	0
1	9517	78	1
1	9523	78	0
1	9572	78.030104648964	1
1	9573	78.030104648964	0
1	9767	80	1
1	9773	80	0
1	9819	80.030104648964	1
1	9820	80.030104648964	0
1	10016	82	1
1	10022	82	0
1	10072	82.030104648964	1
1	10073	82.030104648964	0
1	10264	84	1
1	10270	84	0
1	10320	84.030104648964	1
1	10321	84.030104648964	0
1	10528	86	1
1	10534	86	0
1	10580	86.030104648964	1
1	10581	86.030104648964	0
1	10757	88	1
1	10762	88	0
1	10801	88.030104648964	1
1	10802	88.030104648964	0
1	11038	90	1
1	11043	90	0
1	11082	90.030104648964	1
1	11083	90.030104648964	0
1	11290	92	1
1	11295	92	0
1	11340	92.030104648964	1
1	11341	92.030104648964	0
1	11475	93.220939703994	1
1	11476	93.220939703994	0
1	11555	94	1
1	11591	94.030104648964	2
1	11608	94.220939703994	1
1	11609	94.220939703994	0
1	11634	94.410435955329	1
1	11635	94.410435955329	0
1	11646	94.641856927284	1
1	11722	95.410435955329	0
1	11821	96	1
1	11861	96.030104648964	2
1	11867	96.150072158911	3
1	11892	96.410435955329	2
1	11893	96.410435955329	1
1	11894	96.410435955329	0
1	12100	98	1
1	12105	98	0
1	12145	98.030104648964	1
1	12146	98.030104648964	0
1	12179	98.376156148353	1
1	12180	98.376156148353	0
1	12191	98.567452194251	1
1	12279	99.376156148353	0
1	12292	99.604697288354	1
1	12298	99.778892448728	2
1	12321	99.934178034233	3
1	12365	100	4
1	12408	100.030104648964	5
1	12429	100.376156148353	4
1	12524	101.077973413352	5
1	12552	101.376156148353	4
1	12593	101.942911522781	5
1	12634	102	6
1	12682	102.030104648964	7
1	12703	102.376156148353	6
1	12790	103.230873497857	7
1	12805	103.376156148353	6
1	12806	103.376156148353	5
1	12807	103.376156148353	4
1	12830	103.740075984723	5
1	12897	104	6
1	12937	104.030104648964	7
1	12959	104.376156148353	6
1	13023	104.942789768552	7
1	13083	105.376156148353	6
1	13084	105.376156148353	5
1	13085	105.376156148353	4
1	13180	106	5
1	13228	106.030104648964	6
1	13247	106.376156148353	5
1	13253	106.399349980128	6
1	13350	107.376156148353	5
1	13351	107.376156148353	4
1	13352	107.376156148353	3
1	13423	108	4
1	13463	108.030104648964	5
1	13497	108.349326891975	6
1	13498	108.376156148353	5
1	13499	108.376156148353	4
1	13500	108.376156148353	3
1	13598	109.376156148353	2
1	13599	109.376156148353	1
1	13600	109.376156148353	0
1	13681	110	1
1	13729	110.030104648964	2
1	13757	110.376156148353	1
1	13758	110.376156148353	0
1	13917	112	1
1	13923	112	0
1	13976	112.030104648964	1
1	13977	112.030104648964	0
1	14097	113.23282588232	1
1	14098	113.23282588232	0
1	14190	114	1
1	14235	114.030104648964	2
1	14246	114.23282588232	1
1	14247	114.23282588232	0
1	14266	114.373104759239	1
1	14267	114.373104759239	0
1	14270	114.469646038267	1
1	14344	115.075079819907	2
1	14350	115.108713740827	3
1	14353	115.124442864602	4
1	14373	115.373104759239	3
1	14385	115.844087762291	4
1	14403	115.914589710652	5
1	14441	116	6
1	14484	116.030104648964	7
1	14509	116.204863125775	8
1	14520	116.373104759239	7
1	14605	117.072724995663	8
1	14627	117.373104759239	7
1	14729	118	8
1	14777	118.030104648964	9
1	14799	118.373104759239	8
1	14881	119.373104759239	7
1	14950	120	8
1	14993	120.030104648964	9
1	15023	120.373104759239	8
1	15035	120.732287114125	9
1	15126	121.373104759239	8
1	15127	121.373104759239	7
1	15128	121.373104759239	6
1	15163	121.882949707054	7
1	15208	122	8
2	14	0.898560388484	1
2	15	0.898560388484	0
2	22	1.216916529326	1
2	26	1.353259139138	2
2	41	1.866362877577	3
2	46	1.898560388484	2
2	67	2	3
2	119	2.0001	4
2	159	2.485328163722	5
2	201	2.898560388484	4
2	254	3.485328163722	5
2	293	3.898560388484	4
2	314	4	5
2	362	4.0001	6
2	419	4.898560388484	5
2	420	4.898560388484	4
2	421	4.898560388484	3
2	504	5.898560388484	2
2	525	6	3
2	561	6.0001	4
2	604	6.175037647023	5
2	663	6.898560388484	4
2	664	6.898560388484	3
2	665	6.898560388484	2
2	666	6.898560388484	1
2	667	6.898560388484	0
2	772	7.789039721916	1
2	787	7.898560388484	0
2	818	8	1
2	933	8.789039721916	2
2	955	8.898560388484	1
2	956	8.898560388484	0
2	1060	9.789039721916	1
2	1074	9.898560388484	0
2	1098	10	1
2	1125	10.018896285627	2
2	1199	10.616642362445	3
2	1203	10.789039721916	4
2	1212	10.898560388484	3
2	1213	10.898560388484	2
2	1262	11.029904648964	3
2	1302	11.789039721916	4
2	1305	11.812750161902	5
2	1317	11.898560388484	4
2	1345	12	5
2	1471	12.789039721916	6
2	1490	12.898560388484	5
2	1496	12.923347607589	6
2	1575	13.789039721916	7
2	1598	13.898560388484	6
2	1599	13.898560388484	5
2	1622	14	6
2	1716	14.789039721916	7
2	1736	14.898560388484	6
2	1767	15.029904648964	7
2	1798	15.789039721916	8
2	1821	15.898560388484	7
2	1822	15.898560388484	6
2	1859	16	7
2	1959	16.789039721916	8
2	1975	16.898560388484	7
2	2053	17.789039721916	8
2	2077	17.898560388484	7
2	2105	18	8
2	2205	18.789039721916	9
2	2219	18.898560388484	8
2	2220	18.898560388484	7
2	2266	19.029904648964	8
2	2312	19.789039721916	9
2	2333	19.898560388484	8
2	2334	19.898560388484	7
2	2364	20	8
2	2465	20.789039721916	9
2	2479	20.898560388484	8
2	2480	20.898560388484	7
2	2576	21.898560388484	6
2	2608	22	7
2	2721	22.898560388484	6
2	2722	22.898560388484	5
2	2770	23.300018100066	6
2	2801	23.898560388484	5
2	2802	23.898560388484	4
2	2839	24	5
2	2900	24.029904648964	6
2	2936	24.898560388484	5
2	2937	24.898560388484	4
2	2995	25.303258622573	5
2	3009	25.898560388484	4
2	3010	25.898560388484	3
2	3041	26	4
2	3095	26.029904648964	5
2	3197	26.898560388484	4
2	3198	26.898560388484	3
2	3199	26.898560388484	2
2	3278	27.898560388484	1
2	3279	27.898560388484	0
2	3314	28	1
2	3329	28	0
2	3382	28.029904648964	1
2	3383	28.029904648964	0
2	3550	30	1
2	3565	30	0
2	3691	31.029904648964	1
2	3692	31.029904648964	0
2	3771	32	1
2	3786	32	0
2	3924	33.029904648964	1
2	3925	33.029904648964	0
2	4017	34	1
2	4032	34	0
2	4118	34.585662982251	1
2	4120	34.585662982251	0
2	4164	35.029904648964	1
2	4203	35.585662982251	0
2	4208	35.585662982251	1
2	4209	35.585662982251	0
2	4264	36	1
2	4350	36.585662982251	0
2	4424	37.029904648964	1
2	4425	37.029904648964	0
2	4545	38	1
2	4560	38	0
2	4705	39.029904648964	1
2	4706	39.029904648964	0
2	4742	39.28814733348	1
2	4743	39.28814733348	0
2	4790	40	1
2	4848	40.28814733348	0
2	4851	40.28814733348	1
2	4852	40.28814733348	0
2	4988	41.28814733348	1
2	4990	41.28814733348	0
2	4996	41.308944677489	1
2	5046	42	2
2	5100	42.029904648964	3
2	5121	42.28814733348	2
2	5125	42.28814733348	3
2	5212	43.148677462566	4
2	5215	43.280861172181	5
2	5219	43.28814733348	4
2	5222	43.28814733348	3
2	5224	43.28814733348	4
2	5225	43.28814733348	3
2	5293	44	4
2	5350	44.28814733348	3
2	5374	44.628348671697	4
2	5378	44.79068462779	5
2	5381	44.824471413342	6
2	5396	44.896146797655	7
2	5429	45.029904648964	8
2	5466	45.28814733348	7
2	5485	45.628348671697	8
2	5536	46	9
2	5615	46.28814733348	8
2	5628	46.628348671697	9
2	5680	47.029904648964	10
2	5695	47.28814733348	9
2	5696	47.28814733348	8
2	5712	47.628348671697	9
2	5750	48	10
2	5837	48.28814733348	9
2	5878	48.94599363646	10
2	5934	49.029904648964	11
2	5957	49.169132844561	12
2	5958	49.28814733348	11
2	5984	49.791730188539	12
2	6021	50	13
2	6092	50.28814733348	12
2	6106	50.529885493073	13
2	6145	51.010526991882	14
2	6161	51.029904648964	15
2	6186	51.062209897677	16
2	6187	51.28814733348	15
2	6188	51.28814733348	14
2	6228	51.923133534358	15
2	6246	52	16
2	6318	52.234101339328	17
2	6322	52.28814733348	16
2	6323	52.28814733348	15
2	6394	53.029904648964	16
2	6423	53.28814733348	15
2	6424	53.28814733348	14
2	6436	53.370697834585	15
2	6440	53.41442978148	16
2	6487	54	17
2	6566	54.28814733348	16
2	6567	54.28814733348	15
2	6656	55.28814733348	14
2	6657	55.28814733348	13
2	6681	55.41160174897	14
2	6733	56	15
2	6811	56.28814733348	14
2	6821	56.41160174897	15
2	6824	56.708632168439	16
2	6925	57.082301962833	17
2	6926	57.28814733348	16
2	6927	57.28814733348	15
2	6943	57.41160174897	16
2	7004	58	17
2	7060	58.029904648964	18
2	7077	58.043741534404	19
2	7081	58.28814733348	18
2	7151	59.28814733348	17
2	7152	59.28814733348	16
2	7160	59.40567325871	17
2	7227	60	18
2	7295	60.035624538718	19
2	7304	60.28814733348	18
2	7380	61.029904648964	19
2	7425	61.165980084629	20
2	7426	61.28814733348	19
2	7427	61.28814733348	18
2	7442	61.675513274494	19
2	7496	62	20
2	7561	62.165980084629	21
2	7562	62.28814733348	20
2	7563	62.28814733348	19
2	7577	62.713363349983	20
2	7667	63.165980084629	21
2	7668	63.28814733348	20
2	7677	63.446731023151	21
2	7730	64	22
2	7762	64.000901852199	23
2	7800	64.165980084629	24
2	7805	64.28814733348	23
2	7806	64.28814733348	22
2	7886	65.139959502872	23
2	7890	65.165980084629	24
2	7894	65.28814733348	23
2	7895	65.28814733348	22
2	7971	66	23
2	8052	66.165980084629	24
2	8057	66.28814733348	23
2	8066	66.694622440681	24
2	8155	67.165980084629	25
2	8162	67.28814733348	24
2	8168	67.332811046274	25
2	8177	67.801487522251	26
2	8224	68	27
2	8270	68.029904648964	28
2	8300	68.043407167022	29
2	8319	68.165980084629	30
2	8322	68.28814733348	29
2	8331	68.368623184998	30
2	8409	69.165980084629	31
2	8410	69.28814733348	30
2	8411	69.28814733348	29
2	8412	69.28814733348	28
2	8499	70	29
2	8587	70.165980084629	30
2	8591	70.28814733348	29
2	8666	71.029904648964	30
2	8703	71.165980084629	31
2	8707	71.28814733348	30
2	8708	71.28814733348	29
2	8779	72	30
2	8859	72.165980084629	31
2	8864	72.28814733348	30
2	8865	72.28814733348	29
2	8961	73.165980084629	30
2	8963	73.28814733348	29
2	9040	74	30
2	9111	74.165980084629	31
2	9112	74.28814733348	30
2	9113	74.28814733348	29
2	9200	75.165980084629	30
2	9204	75.28814733348	29
2	9273	76	30
2	9319	76.029904648964	31
2	9362	76.165980084629	32
2	9363	76.28814733348	31
2	9450	77.165980084629	32
2	9452	77.28814733348	31
2	9505	78	32
2	9555	78.029904648964	33
2	9595	78.165980084629	34
2	9599	78.28814733348	33
2	9600	78.28814733348	32
2	9685	79.165980084629	33
2	9687	79.28814733348	32
2	9755	80	33
2	9802	80.029904648964	34
2	9848	80.165980084629	35
2	9849	80.28814733348	34
2	9939	81.165980084629	35
2	9940	81.28814733348	34
2	10004	82	35
2	10055	82.029904648964	36
2	10098	82.165980084629	37
2	10106	82.28814733348	36
2	10107	82.28814733348	35
2	10181	83.165980084629	36
2	10183	83.28814733348	35
2	10252	84	36
2	10303	84.029904648964	37
2	10334	84.165980084629	38
2	10338	84.28814733348	37
2	10451	85.165980084629	38
2	10456	85.28814733348	37
2	10516	86	38
2	10594	86.165980084629	39
2	10598	86.28814733348	38
2	10666	87.029904648964	39
2	10684	87.165980084629	40
2	10685	87.28814733348	39
2	10686	87.28814733348	38
2	10687	87.28814733348	37
2	10745	88	38
2	10818	88.165980084629	39
2	10823	88.28814733348	38
2	10904	89.029904648964	39
2	10939	89.165980084629	40
2	10943	89.28814733348	39
2	11026	90	40
2	11102	90.165980084629	41
2	11104	90.28814733348	40
2	11163	91.029904648964	41
2	11193	91.165980084629	42
2	11194	91.28814733348	41
2	11195	91.28814733348	40
2	11278	92	41
2	11354	92.165980084629	42
2	11365	92.28814733348	41
2	11366	92.28814733348	40
2	11434	93.029904648964	41
2	11472	93.165980084629	42
2	11477	93.28814733348	41
2	11478	93.28814733348	40
2	11543	94	41
2	11601	94.165980084629	42
2	11622	94.28814733348	41
2	11685	95.029904648964	42
2	11709	95.165980084629	43
2	11711	95.28814733348	42
2	11712	95.28814733348	41
2	11809	96	42
2	11877	96.165980084629	43
2	11885	96.28814733348	42
2	11973	97.029904648964	43
2	11999	97.165980084629	44
2	12003	97.28814733348	43
2	12004	97.28814733348	42
2	12005	97.28814733348	41
2	12088	98	42
2	12162	98.165980084629	43
2	12164	98.28814733348	42
2	12244	99.029904648964	43
2	12264	99.165980084629	44
2	12268	99.28814733348	43
2	12269	99.28814733348	42
2	12270	99.28814733348	41
2	12353	100	42
2	12424	100.165980084629	43
2	12425	100.28814733348	42
2	12510	101.029904648964	43
2	12537	101.165980084629	44
2	12541	101.28814733348	43
2	12542	101.28814733348	42
2	12543	101.28814733348	41
2	12622	102	42
2	12698	102.165980084629	43
2	12699	102.28814733348	42
2	12787	103.165980084629	43
2	12791	103.28814733348	42
2	12792	103.28814733348	41
2	12793	103.28814733348	40
2	12885	104	41
2	12950	104.165980084629	42
2	12952	104.28814733348	41
2	13047	105.029904648964	42
2	13065	105.165980084629	43
2	13072	105.28814733348	42
2	13073	105.28814733348	41
2	13074	105.28814733348	40
2	13168	106	41
2	13242	106.165980084629	42
2	13243	106.28814733348	41
2	13335	107.165980084629	42
2	13339	107.28814733348	41
2	13340	107.28814733348	40
2	13411	108	41
2	13448	108.029904648964	42
2	13483	108.165980084629	43
2	13488	108.28814733348	42
2	13489	108.28814733348	41
2	13583	109.165980084629	42
2	13590	109.28814733348	41
2	13591	109.28814733348	40
2	13669	110	41
2	13742	110.165980084629	42
2	13747	110.28814733348	41
2	13748	110.28814733348	40
2	13839	111.165980084629	41
2	13840	111.28814733348	40
2	13841	111.28814733348	39
2	13905	112	40
2	13959	112.029904648964	41
2	13999	112.165980084629	42
2	14003	112.28814733348	41
2	14004	112.28814733348	40
2	14091	113.165980084629	41
2	14099	113.28814733348	40
2	14100	113.28814733348	39
2	14178	114	40
2	14245	114.165980084629	41
2	14257	114.28814733348	40
2	14258	114.28814733348	39
2	14363	115.165980084629	40
2	14365	115.28814733348	39
2	14366	115.28814733348	38
2	14429	116	39
2	14506	116.165980084629	40
2	14510	116.28814733348	39
2	14511	116.28814733348	38
2	14612	117.165980084629	39
2	14616	117.28814733348	38
2	14617	117.28814733348	37
2	14717	118	38
2	14760	118.029904648964	39
2	14790	118.165980084629	40
2	14792	118.28814733348	39
2	14793	118.28814733348	38
2	14872	119.165980084629	39
2	14873	119.28814733348	38
2	14874	119.28814733348	37
2	14938	120	38
2	15015	120.165980084629	39
2	15016	120.28814733348	38
2	15017	120.28814733348	37
2	15111	121.165980084629	38
2	15115	121.28814733348	37
2	15116	121.28814733348	36
2	15196	122	37
3	18	0.977006426393	1
3	19	0.977006426393	0
3	29	1.460608531341	1
3	54	1.977006426393	0
3	75	2	1
3	123	2.0001	2
3	195	2.879064054203	3
3	220	2.977006426393	2
3	221	2.977006426393	1
3	222	2.977006426393	0
3	292	3.879064054203	1
3	301	3.977006426393	0
3	322	4	1
3	365	4.0001	2
3	418	4.879064054203	3
3	438	4.977006426393	2
3	439	4.977006426393	1
3	440	4.977006426393	0
3	503	5.879064054203	1
3	512	5.977006426393	0
3	533	6	1
3	562	6.0001	2
3	661	6.879064054203	3
3	688	6.977006426393	2
3	689	6.977006426393	1
3	690	6.977006426393	0
3	786	7.879064054203	1
3	802	7.977006426393	0
3	826	8	1
3	845	8.0001	2
3	951	8.879064054203	3
3	967	8.977006426393	2
3	968	8.977006426393	1
3	969	8.977006426393	0
3	1072	9.879064054203	1
3	1085	9.977006426393	0
3	1106	10	1
3	1121	10.0001	2
3	1211	10.879064054203	3
3	1227	10.977006426393	2
3	1228	10.977006426393	1
3	1229	10.977006426393	0
3	1316	11.879064054203	1
3	1332	11.977006426393	0
3	1353	12	1
3	1372	12.0001	2
3	1445	12.111039470784	3
3	1454	12.298465536802	4
3	1457	12.43649422523	5
3	1489	12.879064054203	6
3	1507	12.977006426393	5
3	1508	12.977006426393	4
3	1509	12.977006426393	3
3	1578	13.825536915021	4
3	1592	13.879064054203	5
3	1609	13.977006426393	4
3	1630	14	5
3	1650	14.0001	6
3	1720	14.833556160441	7
3	1735	14.879064054203	8
3	1744	14.977006426393	7
3	1785	15.368620837524	8
3	1794	15.648897846003	9
3	1815	15.879064054203	10
3	1846	15.977006426393	9
3	1867	16	10
3	1891	16.0001	11
3	1942	16.061399075925	12
3	1945	16.442954919299	13
3	1951	16.591667188551	14
3	1962	16.810547785058	15
3	1974	16.879064054203	16
3	1983	16.977006426393	15
3	2033	17.270561742798	16
3	2036	17.284226321229	17
3	2039	17.386371202754	18
3	2071	17.879064054203	19
3	2092	17.977006426393	18
3	2113	18	19
3	2137	18.0001	20
3	2195	18.36147313691	21
3	2218	18.879064054203	22
3	2231	18.977006426393	21
3	2232	18.977006426393	20
3	2233	18.977006426393	19
3	2327	19.879064054203	20
3	2351	19.977006426393	19
3	2372	20	20
3	2396	20.0001	21
3	2478	20.879064054203	22
3	2497	20.977006426393	21
3	2575	21.879064054203	22
3	2595	21.977006426393	21
3	2616	22	22
3	2649	22.0001	23
3	2700	22.110504596494	24
3	2703	22.176801997976	25
3	2706	22.421197446058	26