file 194026 1717103259                                          
version 3
run General-0-20240530-17:53:50-12982
attr configname General
attr datetime 20240530-17:53:50
attr datetimef 20240530-175350
attr experiment General
attr inifile omnetpp.ini
attr iterationvars ""
attr iterationvarsd ""
attr iterationvarsf ""
attr measurement ""
attr network Network
attr processid 12982
attr repetition 0
attr replication #0
attr resultdir results
attr runnumber 0
attr seedset 0
config network Network
config sim-time-limit 200s
config Network.node[{0,1,2,3,4,6,7}].app.interArrivalTime exponential(1)
config Network.node[{0,1,2,3,4,6,7}].app.packetByteSize 125000
config Network.node[{0,1,2,3,4,6,7}].app.destination 5

vector 0 Network.node[7].lnk[1] "Buffer Size" ETV
vector 1 Network.node[6].lnk[1] "Buffer Size" ETV
vector 2 Network.node[0].lnk[1] "Buffer Size" ETV
vector 3 Network.node[4].lnk[1] "Buffer Size" ETV
vector 4 Network.node[1].lnk[1] "Buffer Size" ETV
vector 5 Network.node[3].lnk[1] "Buffer Size" ETV
vector 6 Network.node[2].lnk[1] "Buffer Size" ETV
vector 7 Network.node[5].net "envios por lnk0" ETV
vector 8 Network.node[5].net "Hops de 4" ETV
vector 9 Network.node[5].net "duracion de 4" ETV
vector 10 Network.node[5].app Delay ETV
vector 11 Network.node[0].lnk[0] "Buffer Size" ETV
vector 12 Network.node[1].lnk[0] "Buffer Size" ETV
vector 13 Network.node[2].lnk[0] "Buffer Size" ETV
vector 14 Network.node[3].lnk[0] "Buffer Size" ETV
vector 15 Network.node[4].lnk[0] "Buffer Size" ETV
vector 16 Network.node[5].lnk[0] "Buffer Size" ETV
vector 17 Network.node[5].lnk[1] "Buffer Size" ETV
vector 18 Network.node[6].lnk[0] "Buffer Size" ETV
vector 19 Network.node[7].lnk[0] "Buffer Size" ETV
vector 20 Network.node[5].net "Hops de 3" ETV
vector 21 Network.node[5].net "duracion de 3" ETV
vector 22 Network.node[5].net "Hops de 7" ETV
vector 23 Network.node[5].net "duracion de 7" ETV
vector 24 Network.node[5].net "Hops de 6" ETV
vector 25 Network.node[5].net "duracion de 6" ETV
vector 26 Network.node[5].net "Hops de 2" ETV
vector 27 Network.node[5].net "duracion de 2" ETV
vector 28 Network.node[5].net "Hops de 0" ETV
vector 29 Network.node[5].net "duracion de 0" ETV
vector 30 Network.node[5].net "Hops de 1" ETV
vector 31 Network.node[5].net "duracion de 1" ETV
0	2219 9327 3 15210 0.353159139138 122 404 0 30 3206 57058
1	11546 6032 7 15208 0.485128163722 122 290 0 9 499 2361
2	17578 10225 14 15196 0.898560388484 122 433 0 44 9367 312829
3	27803 11896 18 15224 0.977006426393 122.0001 502 0 90 25359 1606579
4	39699 11822 37 15198 1.859604212075 122 485 0 92 20629 1213971
5	51521 12709 44 15223 1.878964054203 122.0001 520 0 122 30410 2341360
6	64230 11417 52 15200 1.951545335884 122 467 0 98 25242 1774118
7	75647 6576 56 15185 1.977106426393 121.977106426393 238 0 1458 170891 165029891
8	82223 1107 56 14837 1.977106426393 118.977106426393 44 0 6 36 216
9	83330 1692 56 14837 1.977106426393 118.977106426393 44 1.0001 65.318841432523 921.46631929023 28521.445360559
10	85022 9520 57 15186 1.977106426393 121.977106426393 238 1.0001 109.81294415077 9005.1064547023 519389.74918081
11	94542 13132 66 15195 2 122 513 0 115 26561 1852025
12	107674 11904 68 15231 2 122.029804648964 469 0 86 19925 1085727
13	119578 12771 70 15226 2 122.029704648964 496 0 111 18918 1211148
14	132349 9796 72 15201 2 122 396 0 42 8290 250786
15	142145 7146 74 15211 2 122 318 0 8 651 2543
16	149291 3850 76 15212 2 122 206 0 1 103 103
17	153141 3556 77 15213 2 122 196 0 1 98 98
18	156697 12147 78 15225 2 122.0001 493 0 109 25663 1951959
19	168844 12264 80 15209 2 122 491 0 77 21958 1221522
20	181108 837 303 14867 3.977106426393 119.030204648964 32 1 5 40 80
21	181945 1275 303 14867 3.977106426393 119.030204648964 32 2.09814237219 109.81294415077 1301.5065393721 71619.47568328
22	183220 1030 394 14573 4.576883561174 116.977106426393 39 1 5 71 231
23	184250 1557 394 14573 4.576883561174 116.977106426393 39 2.0002 105.86241590073 1671.1942137796 96922.343735667
24	185807 1492 484 14997 5.576883561174 120.030204648964 56 0 6 48 288
25	187299 2259 484 14997 5.576883561174 120.030204648964 56 1.358869109268 107.42196898037 1752.0266755779 90430.528887868
26	189558 642 514 15075 5.977106426393 120.977106426393 24 2 4 56 144
27	190200 973 514 15075 5.977106426393 120.977106426393 24 4.025561090509 103.93426847005 1351.0789067484 98934.902094794
28	191173 603 751 15106 7.576883561174 121.030204648964 23 2 4 60 176
29	191776 917 751 15106 7.576883561174 121.030204648964 23 3.757576524657 92.255125300573 896.70707048977 57899.096151898
30	192693 529 1087 15185 9.977106426393 121.977106426393 20 3 3 60 180
31	193222 803 1087 15185 9.977106426393 121.977106426393 20 4.06761521795 97.237537882686 1111.1267294444 75061.957266749

